TITLE = "PIV Result  968 "
VARIABLES = "X (mm)""Y (mm)""Z (mm)""U (m/s)""V (m/s)""W (m/s)""Speed (m/s)""Vorticity""U-std""V-std""W-std""Speed-std""Vorticity-std""Flag"
ZONE T="ZONE 968 "
I= 128 , J= 128 , K= 1 , F=POINT
DT=(DOUBLE DOUBLE DOUBLE DOUBLE DOUBLE DOUBLE DOUBLE DOUBLE DOUBLE DOUBLE DOUBLE DOUBLE DOUBLE DOUBLE)
1.497369	1.497369	0.000000	-25.391511	20.435507	0.000000	32.593539	-2605.852172	36.218045	26.392801	0.000000	44.814359	7249.956357	2
2.994739	1.497369	0.000000	-22.546067	19.669075	0.000000	29.919853	-2749.635029	31.883877	25.086891	0.000000	40.570109	6614.878994	1
4.492108	1.497369	0.000000	-14.158749	17.443444	0.000000	22.466506	-3154.460809	29.017017	25.675575	0.000000	38.745612	7018.014712	1
5.989478	1.497369	0.000000	-8.194141	14.009196	0.000000	16.229650	-4075.712799	27.895128	26.109810	0.000000	38.208119	7749.891590	1
7.486847	1.497369	0.000000	1.472575	8.195314	0.000000	8.326563	-3969.845495	27.182336	19.534821	0.000000	33.473700	7419.219174	1
8.984216	1.497369	0.000000	4.339615	1.880795	0.000000	4.729656	-2262.128123	22.823963	14.002146	0.000000	26.776732	5043.901824	2
10.481586	1.497369	0.000000	5.535121	-0.162259	0.000000	5.537498	-336.868222	21.503899	11.946694	0.000000	24.599617	4918.240437	1
11.978955	1.497369	0.000000	4.182321	-0.835553	0.000000	4.264969	787.275813	17.249568	10.212552	0.000000	20.046042	7231.874351	1
13.476325	1.497369	0.000000	0.839100	0.847992	0.000000	1.192970	687.919367	5.268317	6.596648	0.000000	8.442212	4065.462558	1
14.973694	1.497369	0.000000	1.056031	1.050865	0.000000	1.489805	1317.799962	5.132177	5.875585	0.000000	7.801394	4162.384795	1
16.471063	1.497369	0.000000	1.694857	4.158991	0.000000	4.491074	1394.356590	8.609850	13.598129	0.000000	16.094677	4638.437053	1
17.968433	1.497369	0.000000	0.992984	4.117445	0.000000	4.235489	1478.667810	9.611456	13.654969	0.000000	16.698451	3503.424434	1
19.465802	1.497369	0.000000	4.489139	7.376495	0.000000	8.635105	1795.910656	12.643392	18.646089	0.000000	22.528471	3593.899400	1
20.963172	1.497369	0.000000	4.572189	8.908008	0.000000	10.012868	325.905739	13.869964	18.981579	0.000000	23.509067	6841.626846	1
22.460541	1.497369	0.000000	3.390666	7.118924	0.000000	7.885157	-442.023547	27.521840	12.719515	0.000000	30.318934	8011.428443	1
23.957911	1.497369	0.000000	1.705930	6.030934	0.000000	6.267565	-1150.663960	28.799539	11.341691	0.000000	30.952341	6304.309276	2
25.455280	1.497369	0.000000	-3.791185	1.918251	0.000000	4.248855	-1440.168534	30.602985	8.058941	0.000000	31.646314	5634.468491	2
26.952649	1.497369	0.000000	-4.400673	-0.090850	0.000000	4.401611	-209.247927	35.175728	7.073114	0.000000	35.879810	6143.927160	1
28.450019	1.497369	0.000000	-4.408910	-0.944953	0.000000	4.509038	780.684627	30.626516	6.271877	0.000000	31.262116	4608.012322	2
29.947388	1.497369	0.000000	-4.415018	-0.874163	0.000000	4.500727	943.620682	33.136334	7.696449	0.000000	34.018406	4160.933437	2
31.444758	1.497369	0.000000	-3.035112	-0.640681	0.000000	3.101996	1024.103456	23.869964	8.995841	0.000000	25.508829	4756.589481	2
32.942127	1.497369	0.000000	-0.335674	1.156545	0.000000	1.204273	1253.890468	21.317555	8.182961	0.000000	22.834163	5332.748539	2
34.439496	1.497369	0.000000	1.037750	2.391148	0.000000	2.606629	1179.788772	16.984841	6.904189	0.000000	18.334466	3532.637728	1
35.936866	1.497369	0.000000	1.272310	3.438401	0.000000	3.666247	988.786177	11.247849	8.621776	0.000000	14.172125	3864.925104	1
37.434235	1.497369	0.000000	1.438710	4.999333	0.000000	5.202232	505.150429	10.901571	12.625036	0.000000	16.680402	4819.911544	2
38.931605	1.497369	0.000000	2.461204	4.081738	0.000000	4.766352	1071.643280	12.580973	15.373563	0.000000	19.865229	3812.902123	1
40.428974	1.497369	0.000000	2.764008	6.657823	0.000000	7.208768	2054.527034	14.616278	16.209815	0.000000	21.826445	4848.629744	2
41.926343	1.497369	0.000000	1.945232	8.475692	0.000000	8.696050	1298.221003	15.468580	13.842119	0.000000	20.757679	4293.333561	1
43.423713	1.497369	0.000000	-3.798652	9.287477	0.000000	10.034290	34.692615	22.952263	15.605254	0.000000	27.754825	3879.892595	1
44.921082	1.497369	0.000000	-6.852255	8.513376	0.000000	10.928447	-1347.786748	24.587409	15.290666	0.000000	28.954190	4949.374824	2
46.418452	1.497369	0.000000	-12.452658	4.660829	0.000000	13.296316	-1245.556198	27.022022	16.752505	0.000000	31.793649	6018.152301	2
47.915821	1.497369	0.000000	-15.422799	4.864658	0.000000	16.171816	563.648012	30.657595	18.180043	0.000000	35.642701	6632.370971	2
49.413190	1.497369	0.000000	-13.763160	9.494885	0.000000	16.720569	1245.480444	28.445770	17.309881	0.000000	33.298555	6580.241172	2
50.910560	1.497369	0.000000	-16.105079	12.860960	0.000000	20.610140	614.568098	28.770042	19.156321	0.000000	34.564143	6242.465273	2
52.407929	1.497369	0.000000	-15.757205	15.094800	0.000000	21.820690	-860.023948	38.686706	21.314396	0.000000	44.169726	6846.119847	1
53.905299	1.497369	0.000000	-11.419889	13.351596	0.000000	17.569262	-2982.911833	30.609267	23.284432	0.000000	38.458965	7507.894652	1
55.402668	1.497369	0.000000	-11.255950	5.534046	0.000000	12.542810	-3132.267396	29.123851	12.655631	0.000000	31.754743	8031.859981	2
56.900038	1.497369	0.000000	-10.082163	3.651270	0.000000	10.722956	-1503.301636	29.761006	9.794660	0.000000	31.331340	5760.432292	2
58.397407	1.497369	0.000000	-4.881577	3.845898	0.000000	6.214558	-1390.594878	25.096782	9.180970	0.000000	26.723374	5249.203912	2
59.894776	1.497369	0.000000	-5.063003	2.788816	0.000000	5.780268	-1907.683245	20.878236	8.323006	0.000000	22.476057	5485.916063	1
61.392146	1.497369	0.000000	-2.472271	1.966666	0.000000	3.159098	-1510.565091	8.484418	5.255644	0.000000	9.980338	3806.298720	1
62.889515	1.497369	0.000000	-0.751920	1.280612	0.000000	1.485043	-693.257350	7.042914	4.989502	0.000000	8.631209	3071.162852	1
64.386885	1.497369	0.000000	0.358331	0.335401	0.000000	0.490810	-85.199424	4.599189	2.173797	0.000000	5.087035	2292.590842	2
65.884254	1.497369	0.000000	-0.062347	-0.122916	0.000000	0.137824	23.235938	1.458368	0.505850	0.000000	1.543607	1153.774067	1
67.381623	1.497369	0.000000	-0.625205	-0.533104	0.000000	0.821633	-339.506708	0.602684	0.663784	0.000000	0.896570	382.428232	1
68.878993	1.497369	0.000000	-1.216083	-1.413025	0.000000	1.864269	-541.211274	0.575940	0.622742	0.000000	0.848242	284.274873	1
70.376362	1.497369	0.000000	-1.256761	-2.399304	0.000000	2.708525	-19.900213	0.486766	0.599588	0.000000	0.772300	291.638145	2
71.873732	1.497369	0.000000	-0.914023	-1.260293	0.000000	1.556848	279.162182	0.464011	0.410234	0.000000	0.619353	299.984783	2
73.371101	1.497369	0.000000	-0.258154	-0.296925	0.000000	0.393456	-109.549823	0.446500	0.433208	0.000000	0.622119	236.881735	1
74.868470	1.497369	0.000000	-0.562883	-0.550962	0.000000	0.787652	-261.073200	0.305932	0.276338	0.000000	0.412258	185.495909	1
76.365840	1.497369	0.000000	-0.269314	-0.349543	0.000000	0.441260	-114.532367	0.228328	0.230373	0.000000	0.324354	121.468993	1
77.863209	1.497369	0.000000	0.106253	-0.175683	0.000000	0.205315	-101.779402	0.181784	0.170868	0.000000	0.249482	120.604417	1
79.360579	1.497369	0.000000	-0.130233	-0.204718	0.000000	0.242632	-145.098381	0.147192	0.113374	0.000000	0.185794	169.408872	1
80.857948	1.497369	0.000000	-0.052534	-0.100400	0.000000	0.113314	-44.473957	0.380792	0.081925	0.000000	0.389505	174.419704	1
82.355317	1.497369	0.000000	-0.047961	-0.090682	0.000000	0.102584	10.862041	0.322063	0.074127	0.000000	0.330484	165.155884	1
83.852687	1.497369	0.000000	-0.075388	-0.157907	0.000000	0.174980	37.454394	0.299804	0.091841	0.000000	0.313556	200.739819	1
85.350056	1.497369	0.000000	-0.240237	-0.163712	0.000000	0.290716	355.140197	1.254269	0.139547	0.000000	1.262008	380.941411	1
86.847426	1.497369	0.000000	-0.398456	-0.126593	0.000000	0.418082	1165.223750	1.265388	0.176349	0.000000	1.277617	701.289056	2
88.344795	1.497369	0.000000	-1.906256	0.038846	0.000000	1.906651	1757.720474	1.957834	0.183525	0.000000	1.966417	918.645067	2
89.842165	1.497369	0.000000	-2.479743	0.050931	0.000000	2.480266	1523.187892	2.148836	0.188741	0.000000	2.157109	915.215005	2
91.339534	1.497369	0.000000	-1.771362	-0.059707	0.000000	1.772368	1068.079050	1.468430	0.190146	0.000000	1.480690	640.309515	2
92.836903	1.497369	0.000000	-1.062607	-0.105725	0.000000	1.067854	925.955738	1.384532	0.132260	0.000000	1.390835	620.092961	2
94.334273	1.497369	0.000000	-1.055279	-0.094674	0.000000	1.059517	1246.665805	2.072576	0.094610	0.000000	2.074734	858.859682	1
95.831642	1.497369	0.000000	-1.508656	-0.108299	0.000000	1.512538	1577.634633	2.112399	0.075690	0.000000	2.113754	1144.599434	1
97.329012	1.497369	0.000000	-3.249757	-0.122398	0.000000	3.252061	1302.780371	3.002623	0.074486	0.000000	3.003546	1032.224126	1
98.826381	1.497369	0.000000	-3.622408	-0.058142	0.000000	3.622874	861.917667	3.036332	0.068540	0.000000	3.037105	802.658959	1
100.323750	1.497369	0.000000	-4.002955	-0.009497	0.000000	4.002966	668.935476	3.449295	0.073251	0.000000	3.450073	894.304722	2
101.821120	1.497369	0.000000	-3.832035	-0.013591	0.000000	3.832059	538.229559	3.202664	0.074187	0.000000	3.203523	844.023008	2
103.318489	1.497369	0.000000	-3.012085	-0.005397	0.000000	3.012090	407.840523	2.921270	0.086083	0.000000	2.922538	679.777549	2
104.815859	1.497369	0.000000	-1.654884	-0.126476	0.000000	1.659710	410.971830	2.071682	0.020499	0.000000	2.071783	555.952436	1
106.313228	1.497369	0.000000	-1.201371	-0.126826	0.000000	1.208047	426.379135	1.696675	0.020749	0.000000	1.696802	672.941741	1
107.810597	1.497369	0.000000	-1.438008	-0.020552	0.000000	1.438155	380.534968	1.856535	0.075371	0.000000	1.858064	790.916197	2
109.307967	1.497369	0.000000	-1.439133	-0.002355	0.000000	1.439135	360.749953	2.809105	0.077534	0.000000	2.810174	775.174570	1
110.805336	1.497369	0.000000	-1.372270	-0.021232	0.000000	1.372435	215.473575	2.771788	0.075647	0.000000	2.772820	675.559654	2
112.302706	1.497369	0.000000	-1.057617	-0.016184	0.000000	1.057741	41.690102	2.344667	0.083709	0.000000	2.346161	543.448141	2
113.800075	1.497369	0.000000	-0.481304	-0.025792	0.000000	0.481994	17.468821	1.376611	0.093373	0.000000	1.379774	442.356810	2
115.297444	1.497369	0.000000	-0.223013	-0.062857	0.000000	0.231702	51.096062	0.996323	0.086359	0.000000	1.000058	368.797532	2
116.794814	1.497369	0.000000	-0.282399	-0.042177	0.000000	0.285531	42.606454	0.768460	0.104100	0.000000	0.775479	322.626937	2
118.292183	1.497369	0.000000	-0.209382	-0.004916	0.000000	0.209439	42.342913	0.903628	0.117107	0.000000	0.911185	380.799174	2
119.789553	1.497369	0.000000	-0.192458	0.053921	0.000000	0.199869	52.756756	0.796514	0.104813	0.000000	0.803380	319.058968	2
121.286922	1.497369	0.000000	0.029346	0.115215	0.000000	0.118894	19.284741	0.040387	0.111767	0.000000	0.118840	142.309493	1
122.784292	1.497369	0.000000	0.029352	0.080983	0.000000	0.086138	4.821542	0.040392	0.107199	0.000000	0.114556	258.615476	1
124.281661	1.497369	0.000000	-0.175047	-0.035276	0.000000	0.178566	34.242197	0.909359	0.092107	0.000000	0.914011	530.472235	2
125.779030	1.497369	0.000000	-0.822823	-0.056693	0.000000	0.824774	429.501682	2.081516	0.095489	0.000000	2.083706	795.965766	2
127.276400	1.497369	0.000000	-3.100468	0.011189	0.000000	3.100488	1111.916767	3.377879	0.111678	0.000000	3.379724	1269.134581	2
128.773769	1.497369	0.000000	-5.846178	0.047036	0.000000	5.846367	1372.221929	4.298120	0.091816	0.000000	4.299100	1499.942689	2
130.271139	1.497369	0.000000	-7.334320	0.103536	0.000000	7.335051	1521.684267	4.414868	0.078155	0.000000	4.415560	1435.369067	2
131.768508	1.497369	0.000000	-7.822415	0.077315	0.000000	7.822797	2058.435631	3.724290	0.099561	0.000000	3.725620	1212.294292	1
133.265877	1.497369	0.000000	-8.576193	-0.032696	0.000000	8.576255	2653.565221	3.150203	0.083235	0.000000	3.151302	1464.605896	1
134.763247	1.497369	0.000000	-9.398506	-0.082218	0.000000	9.398866	2854.054026	3.060994	0.100937	0.000000	3.062658	1549.851630	1
136.260616	1.497369	0.000000	-11.165422	-0.013965	0.000000	11.165431	2573.063321	3.590803	0.104037	0.000000	3.592310	1485.851146	2
137.757986	1.497369	0.000000	-12.237916	0.220883	0.000000	12.239909	2121.634507	3.641913	0.122314	0.000000	3.643966	1541.619838	2
139.255355	1.497369	0.000000	-13.212369	0.330882	0.000000	13.216511	1736.924529	3.827175	0.103476	0.000000	3.828574	1526.995032	1
140.752724	1.497369	0.000000	-13.625584	0.413212	0.000000	13.631848	1549.039926	3.304097	0.109030	0.000000	3.305895	1299.976818	2
142.250094	1.497369	0.000000	-13.530726	0.350394	0.000000	13.535262	1557.900929	3.754368	0.132392	0.000000	3.756702	1123.497818	2
143.747463	1.497369	0.000000	-12.844980	0.166488	0.000000	12.846059	1666.838424	3.921503	0.102390	0.000000	3.922840	1293.749595	2
145.244833	1.497369	0.000000	-12.265834	0.114963	0.000000	12.266373	1840.095455	4.537290	0.070775	0.000000	4.537842	1552.309659	2
146.742202	1.497369	0.000000	-11.626510	0.206451	0.000000	11.628343	1897.912027	4.253057	0.117055	0.000000	4.254668	1567.725024	2
148.239571	1.497369	0.000000	-12.274891	0.248314	0.000000	12.277403	1685.307627	3.589215	0.122814	0.000000	3.591316	1363.056132	2
149.736941	1.497369	0.000000	-12.654408	0.239704	0.000000	12.656678	1816.011514	3.643121	0.112338	0.000000	3.644852	1251.815704	2
151.234310	1.497369	0.000000	-12.357290	0.080944	0.000000	12.357555	2326.633737	3.652568	0.121594	0.000000	3.654591	1602.783656	2
152.731680	1.497369	0.000000	-13.165785	-0.249470	0.000000	13.168149	2784.485090	3.841147	0.200830	0.000000	3.846394	1460.720573	2
154.229049	1.497369	0.000000	-9.776456	-0.321111	0.000000	9.781728	2566.941680	3.278176	0.095830	0.000000	3.279576	1119.451944	2
155.726418	1.497369	0.000000	-4.963092	-0.294673	0.000000	4.971832	1254.496648	4.473649	0.101299	0.000000	4.474796	876.796921	1
157.223788	1.497369	0.000000	-1.335612	-0.181987	0.000000	1.347954	300.212144	1.836586	0.097828	0.000000	1.839189	691.686546	1
158.721157	1.497369	0.000000	-1.016563	-0.166273	0.000000	1.030072	384.155134	1.772350	0.094434	0.000000	1.774864	486.542756	1
160.218527	1.497369	0.000000	-2.557645	-0.203078	0.000000	2.565695	220.841148	2.959923	0.082262	0.000000	2.961066	636.497784	2
161.715896	1.497369	0.000000	-9.215181	-0.202922	0.000000	9.217415	-726.994881	4.073634	0.106680	0.000000	4.075031	638.719751	1
163.213266	1.497369	0.000000	-6.450655	-0.191219	0.000000	6.453489	-891.168242	4.685806	0.092949	0.000000	4.686727	729.205252	1
164.710635	1.497369	0.000000	-0.134632	-0.089134	0.000000	0.161464	-195.363775	0.406692	0.079820	0.000000	0.414451	410.546272	1
166.208004	1.497369	0.000000	-0.277148	-0.046303	0.000000	0.280989	36.259339	0.542232	0.111045	0.000000	0.553485	295.425261	1
167.705374	1.497369	0.000000	-0.189269	-0.076575	0.000000	0.204173	-36.147922	0.474115	0.110080	0.000000	0.486727	293.090213	1
169.202743	1.497369	0.000000	-0.234638	-0.296011	0.000000	0.377727	-85.513795	0.523666	0.063957	0.000000	0.527557	255.867497	2
170.700113	1.497369	0.000000	-0.255769	-0.298681	0.000000	0.393228	-67.159556	0.552891	0.064137	0.000000	0.556599	268.518711	1
172.197482	1.497369	0.000000	0.118744	-0.278447	0.000000	0.302709	58.093252	0.568638	0.082580	0.000000	0.574603	282.267572	2
173.694851	1.497369	0.000000	0.164796	-0.235757	0.000000	0.287644	183.765578	0.406712	0.067910	0.000000	0.412343	296.512718	2
175.192221	1.497369	0.000000	0.025323	-0.198801	0.000000	0.200407	154.460240	0.603805	0.061659	0.000000	0.606946	340.012913	2
176.689590	1.497369	0.000000	-0.063199	-0.206951	0.000000	0.216386	37.896721	0.514048	0.070891	0.000000	0.518913	284.089995	2
178.186960	1.497369	0.000000	-0.019344	-0.221354	0.000000	0.222197	-3.376415	0.521278	0.064441	0.000000	0.525246	260.403017	2
179.684329	1.497369	0.000000	-0.081653	-0.290555	0.000000	0.301811	-31.789307	0.444982	0.080879	0.000000	0.452273	229.991538	1
181.181698	1.497369	0.000000	-0.030619	-0.458601	0.000000	0.459622	-43.373095	0.449545	0.101957	0.000000	0.460962	191.732148	1
182.679068	1.497369	0.000000	-0.034798	-0.477870	0.000000	0.479135	-19.682849	0.353654	0.126883	0.000000	0.375726	159.528891	1
184.176437	1.497369	0.000000	0.061577	-0.323679	0.000000	0.329484	-20.687185	0.213631	0.086134	0.000000	0.230341	130.789237	2
185.673807	1.497369	0.000000	-0.011993	-0.319637	0.000000	0.319862	-88.679426	0.361293	0.079107	0.000000	0.369852	169.670618	2
187.171176	1.497369	0.000000	0.412335	-0.549465	0.000000	0.686973	-213.016482	0.232364	0.136754	0.000000	0.269620	133.277947	2
188.668545	1.497369	0.000000	0.829566	-0.908697	0.000000	1.230410	-49.299557	0.425058	0.170983	0.000000	0.458159	192.954071	2
190.165915	1.497369	0.000000	0.323020	-0.296400	0.000000	0.438400	228.404734	0.201323	0.194713	0.000000	0.280079	177.269189	1
191.663284	1.497369	0.000000	0.634260	-0.347748	0.000000	0.723336	294.754533	0.231243	0.426217	0.000000	0.484906	245.674819	2
1.497369	2.994739	0.000000	-23.154296	17.035315	0.000000	28.745841	-4216.489804	31.956766	23.575531	0.000000	39.711970	9025.935547	2
2.994739	2.994739	0.000000	-19.317031	15.464152	0.000000	24.744448	-4258.394965	29.047583	22.338346	0.000000	36.643741	7620.770912	1
4.492108	2.994739	0.000000	-12.376724	14.035812	0.000000	18.713292	-3984.741920	25.617494	24.448822	0.000000	35.411875	7126.495679	1
5.989478	2.994739	0.000000	-6.575546	10.642138	0.000000	12.509713	-3913.742568	19.774537	20.453470	0.000000	28.449548	7472.617053	2
7.486847	2.994739	0.000000	2.024747	4.443939	0.000000	4.883461	-2968.467543	19.805689	13.189674	0.000000	23.795648	6659.998886	2
8.984216	2.994739	0.000000	4.139652	1.516215	0.000000	4.408586	-1094.825111	20.286925	10.364241	0.000000	22.781062	5009.650095	2
10.481586	2.994739	0.000000	5.092935	-1.037393	0.000000	5.197516	494.864622	19.356943	10.068501	0.000000	21.818936	5230.907533	1
11.978955	2.994739	0.000000	3.050275	-0.001481	0.000000	3.050276	1145.680198	9.399970	5.174332	0.000000	10.730011	5824.361225	1
13.476325	2.994739	0.000000	0.918144	0.040494	0.000000	0.919037	733.248183	3.825813	2.529142	0.000000	4.586219	2811.541337	1
14.973694	2.994739	0.000000	0.563017	0.765407	0.000000	0.950177	1190.944352	2.105006	3.918338	0.000000	4.447968	3208.662449	1
16.471063	2.994739	0.000000	0.955009	2.975596	0.000000	3.125094	1301.562297	5.681691	11.037989	0.000000	12.414459	3672.860831	1
17.968433	2.994739	0.000000	1.174621	4.259221	0.000000	4.418223	1494.814647	6.187211	13.554374	0.000000	14.899753	3047.666217	1
19.465802	2.994739	0.000000	3.220676	6.969502	0.000000	7.677676	1621.584906	10.790151	18.204459	0.000000	21.161987	3104.325000	1
20.963172	2.994739	0.000000	3.519798	6.817543	0.000000	7.672540	441.188497	12.814109	15.471951	0.000000	20.089367	5424.304966	1
22.460541	2.994739	0.000000	2.810918	5.226084	0.000000	5.934072	-172.767810	16.944876	10.877078	0.000000	20.135532	6035.649780	2
23.957911	2.994739	0.000000	0.748240	3.877549	0.000000	3.949082	-967.142210	22.026463	9.462382	0.000000	23.972938	6303.020721	2
25.455280	2.994739	0.000000	-3.635074	1.195862	0.000000	3.826729	-1625.885070	25.172199	5.825793	0.000000	25.837560	6739.457172	1
26.952649	2.994739	0.000000	-5.382991	-0.254311	0.000000	5.388995	-1047.912107	29.716524	5.930049	0.000000	30.302430	6480.161537	1
28.450019	2.994739	0.000000	-6.148819	-0.742653	0.000000	6.193505	-103.299840	31.282544	6.060611	0.000000	31.864221	4398.696514	1
29.947388	2.994739	0.000000	-6.042297	-0.884520	0.000000	6.106695	688.495095	31.533388	6.208606	0.000000	32.138783	3757.056100	2
31.444758	2.994739	0.000000	-2.800287	-0.154772	0.000000	2.804560	1312.424029	21.395034	6.929759	0.000000	22.489310	4358.571062	2
32.942127	2.994739	0.000000	-1.444846	0.951816	0.000000	1.730184	1609.463684	17.668549	5.033789	0.000000	18.371626	4401.318875	1
34.439496	2.994739	0.000000	0.765052	2.067329	0.000000	2.204349	1561.030635	13.193777	5.384902	0.000000	14.250366	2864.309966	2
35.936866	2.994739	0.000000	0.887912	3.697311	0.000000	3.802433	1204.343589	11.362125	6.841992	0.000000	13.263135	2793.623667	1
37.434235	2.994739	0.000000	1.488155	4.389407	0.000000	4.634814	706.922842	9.704445	8.817176	0.000000	13.111782	3303.782770	1
38.931605	2.994739	0.000000	1.648660	4.981509	0.000000	5.247238	1107.007196	9.606807	11.701703	0.000000	15.140033	2860.081336	1
40.428974	2.994739	0.000000	1.186939	5.996789	0.000000	6.113125	1734.038558	9.809093	11.939525	0.000000	15.452203	3433.467864	1
41.926343	2.994739	0.000000	0.736593	7.717778	0.000000	7.752848	1322.752186	10.517890	13.751961	0.000000	17.313071	3731.512748	1
43.423713	2.994739	0.000000	-3.098650	7.848457	0.000000	8.438004	405.720075	20.143712	13.173077	0.000000	24.068633	3852.195045	1
44.921082	2.994739	0.000000	-6.778295	8.153211	0.000000	10.602836	-1045.589872	20.459726	15.185278	0.000000	25.479267	4467.017746	2
46.418452	2.994739	0.000000	-12.003231	5.699915	0.000000	13.287836	-1347.211073	23.784198	13.836745	0.000000	27.516242	5714.287273	1
47.915821	2.994739	0.000000	-13.653806	7.083505	0.000000	15.381887	-40.660496	25.692549	14.152480	0.000000	29.332572	5974.190273	1
49.413190	2.994739	0.000000	-13.270892	8.721497	0.000000	15.880211	388.900359	26.223000	14.181843	0.000000	29.812253	5573.979730	2
50.910560	2.994739	0.000000	-15.196551	10.209037	0.000000	18.307365	-467.829399	29.562491	14.270449	0.000000	32.826614	6243.500883	2
52.407929	2.994739	0.000000	-14.809514	10.059539	0.000000	17.902961	-1803.231591	31.357991	16.772483	0.000000	35.561774	6590.703721	1
53.905299	2.994739	0.000000	-11.666214	7.124892	0.000000	13.669844	-2987.290802	26.870524	13.451337	0.000000	30.049352	6702.189752	2
55.402668	2.994739	0.000000	-10.031904	3.433298	0.000000	10.603142	-2794.241302	28.654157	8.837394	0.000000	29.986001	6193.252893	2
56.900038	2.994739	0.000000	-8.069691	2.278813	0.000000	8.385279	-1742.462136	27.294597	7.514318	0.000000	28.310069	4870.137972	2
58.397407	2.994739	0.000000	-4.362515	1.885506	0.000000	4.752543	-1646.966873	22.068303	6.939180	0.000000	23.133574	5013.666542	2
59.894776	2.994739	0.000000	-2.107086	0.818843	0.000000	2.260601	-1730.846617	13.344456	4.636268	0.000000	14.126907	4616.048232	2
61.392146	2.994739	0.000000	-0.631451	0.610429	0.000000	0.878268	-1179.794167	5.039289	3.058361	0.000000	5.894744	3001.941147	1
62.889515	2.994739	0.000000	-0.522275	0.146753	0.000000	0.542501	-528.340229	2.328212	0.931389	0.000000	2.507600	2100.273729	2
64.386885	2.994739	0.000000	-0.149406	-0.118181	0.000000	0.190496	-67.002761	0.999284	0.601298	0.000000	1.166245	1383.306139	1
65.884254	2.994739	0.000000	-0.542561	-0.226059	0.000000	0.587771	8.935501	0.626590	0.556115	0.000000	0.837782	698.777774	1
67.381623	2.994739	0.000000	-0.835190	-0.788653	0.000000	1.148702	-317.526600	0.526797	0.571866	0.000000	0.777525	287.854406	1
68.878993	2.994739	0.000000	-0.938787	-1.592306	0.000000	1.848448	-406.403619	0.504284	0.465355	0.000000	0.686191	225.081557	2
70.376362	2.994739	0.000000	-0.875798	-1.438457	0.000000	1.684096	-11.275490	0.457273	0.425617	0.000000	0.624699	214.433484	2
71.873732	2.994739	0.000000	-0.164326	-0.075313	0.000000	0.180763	166.473002	0.342054	0.431952	0.000000	0.550984	188.913766	1
73.371101	2.994739	0.000000	-0.156315	0.113394	0.000000	0.193113	-79.357939	0.242654	0.246378	0.000000	0.345808	136.939194	1
74.868470	2.994739	0.000000	-0.028206	0.047262	0.000000	0.055039	-154.784364	0.119661	0.097181	0.000000	0.154152	106.314634	1
76.365840	2.994739	0.000000	-0.037060	0.005767	0.000000	0.037506	-50.633583	0.094367	0.073398	0.000000	0.119550	61.821291	1
77.863209	2.994739	0.000000	0.209910	0.088837	0.000000	0.227935	-30.200150	0.178776	0.089830	0.000000	0.200075	55.567064	1
79.360579	2.994739	0.000000	0.242204	0.063343	0.000000	0.250350	-81.851564	0.343505	0.081222	0.000000	0.352977	81.935881	1
80.857948	2.994739	0.000000	-0.074975	-0.029419	0.000000	0.080540	-27.348696	0.262899	0.058500	0.000000	0.269329	90.123220	1
82.355317	2.994739	0.000000	-0.052443	0.006005	0.000000	0.052786	53.811985	0.259729	0.102119	0.000000	0.279083	136.213595	1
83.852687	2.994739	0.000000	-0.137678	-0.000547	0.000000	0.137679	150.724328	0.396446	0.141424	0.000000	0.420916	243.530396	1
85.350056	2.994739	0.000000	-0.400885	0.013659	0.000000	0.401118	626.417102	1.376170	0.143109	0.000000	1.383591	477.066463	1
86.847426	2.994739	0.000000	-2.057516	0.052597	0.000000	2.058188	1458.569694	2.057447	0.157357	0.000000	2.063455	790.160538	2
88.344795	2.994739	0.000000	-5.055991	0.161678	0.000000	5.058575	1841.883995	2.805609	0.217377	0.000000	2.814017	870.638853	1
89.842165	2.994739	0.000000	-4.808207	0.115907	0.000000	4.809603	1631.918069	2.958748	0.125353	0.000000	2.961402	866.264365	1
91.339534	2.994739	0.000000	-3.305919	0.042112	0.000000	3.306187	1435.946831	2.239248	0.082572	0.000000	2.240770	741.245184	1
92.836903	2.994739	0.000000	-2.294860	0.039966	0.000000	2.295208	1374.944476	2.109958	0.105680	0.000000	2.112603	684.220007	2
94.334273	2.994739	0.000000	-2.641021	0.038264	0.000000	2.641298	1394.181803	2.731301	0.149298	0.000000	2.735378	730.316234	1
95.831642	2.994739	0.000000	-4.587562	0.026775	0.000000	4.587640	1308.071664	3.711985	0.169852	0.000000	3.715869	749.840999	1
97.329012	2.994739	0.000000	-5.043100	-0.021700	0.000000	5.043147	1004.556172	3.832168	0.127479	0.000000	3.834288	698.300747	1
98.826381	2.994739	0.000000	-4.765607	-0.029200	0.000000	4.765697	687.539587	3.579153	0.173092	0.000000	3.583336	709.720464	1
100.323750	2.994739	0.000000	-5.005601	-0.054553	0.000000	5.005898	393.629598	3.798333	0.165861	0.000000	3.801952	673.027692	1
101.821120	2.994739	0.000000	-4.710143	-0.093776	0.000000	4.711077	146.052673	3.623319	0.103591	0.000000	3.624799	568.358522	2
103.318489	2.994739	0.000000	-3.542009	-0.123726	0.000000	3.544169	82.868294	3.046122	0.109170	0.000000	3.048077	570.058530	1
104.815859	2.994739	0.000000	-2.297179	-0.118391	0.000000	2.300228	279.876368	2.244179	0.132226	0.000000	2.248071	593.248031	2
106.313228	2.994739	0.000000	-1.899869	-0.053803	0.000000	1.900631	451.212199	2.205955	0.142324	0.000000	2.210542	657.189916	2
107.810597	2.994739	0.000000	-1.787660	-0.059471	0.000000	1.788649	401.692846	2.872165	0.152748	0.000000	2.876224	642.696978	1
109.307967	2.994739	0.000000	-2.176335	-0.034074	0.000000	2.176602	286.415107	3.317669	0.165260	0.000000	3.321782	571.098001	1
110.805336	2.994739	0.000000	-1.670045	-0.019918	0.000000	1.670164	151.253799	3.404237	0.173537	0.000000	3.408657	493.418542	1
112.302706	2.994739	0.000000	-1.011671	-0.016476	0.000000	1.011805	64.153868	2.647181	0.145001	0.000000	2.651149	423.823429	1
113.800075	2.994739	0.000000	-0.513875	-0.004110	0.000000	0.513892	76.580158	1.687895	0.411524	0.000000	1.737337	373.576667	1
115.297444	2.994739	0.000000	-0.390905	-0.052262	0.000000	0.394383	104.032006	1.443434	0.244675	0.000000	1.464024	302.322369	1
116.794814	2.994739	0.000000	-0.292892	-0.060536	0.000000	0.299083	148.714578	0.802307	0.171438	0.000000	0.820419	355.685822	1
118.292183	2.994739	0.000000	-0.253732	-0.088242	0.000000	0.268639	204.755833	1.000339	0.263085	0.000000	1.034356	478.289557	1
119.789553	2.994739	0.000000	-0.282167	-0.091925	0.000000	0.296763	110.120711	0.667943	0.359072	0.000000	0.758341	325.982172	2
121.286922	2.994739	0.000000	0.026543	-0.118960	0.000000	0.121885	-0.457344	0.041329	0.322209	0.000000	0.324849	183.336234	1
122.784292	2.994739	0.000000	0.026656	-0.101494	0.000000	0.104936	5.053073	0.041434	0.323156	0.000000	0.325801	154.809840	1
124.281661	2.994739	0.000000	-0.241790	-0.014530	0.000000	0.242227	67.181802	1.528188	0.399425	0.000000	1.579525	274.160075	2
125.779030	2.994739	0.000000	-0.954516	-0.026601	0.000000	0.954887	476.993971	1.734609	0.228787	0.000000	1.749632	839.190774	1
127.276400	2.994739	0.000000	-5.295411	-0.013576	0.000000	5.295428	1120.597214	4.042596	0.296330	0.000000	4.053443	1432.852932	1
128.773769	2.994739	0.000000	-7.680324	0.173746	0.000000	7.682289	1373.435810	5.491754	0.510592	0.000000	5.515439	1160.847524	1
130.271139	2.994739	0.000000	-9.300483	0.283573	0.000000	9.304805	1449.053213	5.350853	0.504517	0.000000	5.374585	812.142725	1
131.768508	2.994739	0.000000	-11.094145	0.219359	0.000000	11.096313	1693.420283	4.735407	0.448307	0.000000	4.756581	889.862419	1
133.265877	2.994739	0.000000	-12.538302	0.277025	0.000000	12.541362	1795.836369	4.291089	0.360666	0.000000	4.306219	862.445209	1
134.763247	2.994739	0.000000	-14.270897	0.204021	0.000000	14.272355	1637.812992	3.989206	0.214320	0.000000	3.994959	815.022685	1
136.260616	2.994739	0.000000	-14.725295	0.085822	0.000000	14.725545	1379.720390	3.532555	0.346520	0.000000	3.549510	754.054939	1
137.757986	2.994739	0.000000	-15.456428	0.101577	0.000000	15.456762	1150.292963	3.562174	0.304746	0.000000	3.575186	768.769307	1
139.255355	2.994739	0.000000	-15.555476	0.108452	0.000000	15.555855	951.285078	3.423461	0.282303	0.000000	3.435081	824.223350	1
140.752724	2.994739	0.000000	-15.905119	0.128255	0.000000	15.905636	812.869967	3.048949	0.324661	0.000000	3.066185	766.161376	1
142.250094	2.994739	0.000000	-15.933957	0.061471	0.000000	15.934075	859.919457	2.895217	0.392447	0.000000	2.921694	739.290774	1
143.747463	2.994739	0.000000	-15.391394	0.073581	0.000000	15.391570	1023.189057	3.364220	0.298221	0.000000	3.377412	868.177068	1
145.244833	2.994739	0.000000	-14.901828	0.148341	0.000000	14.902567	1136.693598	3.750744	0.310884	0.000000	3.763606	1013.171835	1
146.742202	2.994739	0.000000	-14.743671	0.119263	0.000000	14.744154	1140.596651	3.607177	0.366221	0.000000	3.625720	991.566844	1
148.239571	2.994739	0.000000	-14.764308	0.022758	0.000000	14.764325	1014.478558	3.096634	0.332073	0.000000	3.114389	816.316967	1
149.736941	2.994739	0.000000	-14.891772	-0.153235	0.000000	14.892561	995.935380	2.755617	0.551544	0.000000	2.810272	760.672675	1
151.234310	2.994739	0.000000	-16.784710	-0.324478	0.000000	16.787846	1136.104251	2.187645	0.512914	0.000000	2.246969	976.728510	1